MODEL 1
REMARK VINA RESULT:    -9.153      0.000      0.000
REMARK INTER + INTRA:         -15.831
REMARK INTER:                 -13.969
REMARK INTRA:                  -1.862
REMARK UNBOUND:                -1.862
REMARK  Name = OSIMERTINIB
REMARK  14 active torsions:
REMARK  status: ('A' for Active; 'I' for Inactive)
REMARK    1  A    between atoms: C_2  and  C_3
REMARK    2  A    between atoms: N_5  and  C_6
REMARK    3  A    between atoms: C_8  and  N_9
REMARK    4  A    between atoms: C_14  and  C_15
REMARK    5  A    between atoms: N_17  and  C_18
REMARK    6  A    between atoms: C_26  and  O_27
REMARK    7  A    between atoms: O_27  and  C_28
REMARK    8  A    between atoms: C_30  and  N_31
REMARK    9  A    between atoms: N_31  and  C_32
REMARK   10  A    between atoms: N_31  and  C_33
REMARK   11  A    between atoms: C_33  and  C_34
REMARK   12  A    between atoms: C_34  and  N_35
REMARK   13  A    between atoms: N_35  and  C_36
REMARK   14  A    between atoms: N_35  and  C_37
REMARK                            x       y       z     vdW  Elec       q    Type
REMARK                         _______ _______ _______ _____ _____    ______ ____
ROOT
ATOM      1  C   UNL     1      13.206  22.206  38.796  0.00  0.00    +0.057 A 
ATOM      2  C   UNL     1      14.177  22.566  39.736  0.00  0.00    +0.052 A 
ATOM      3  C   UNL     1      13.830  22.744  41.085  0.00  0.00    +0.078 A 
ATOM      4  C   UNL     1      12.483  22.544  41.478  0.00  0.00    +0.143 A 
ATOM      5  C   UNL     1      11.517  22.169  40.542  0.00  0.00    +0.072 A 
ATOM      6  C   UNL     1      11.868  21.989  39.201  0.00  0.00    +0.055 A 
ENDROOT
BRANCH   3   7
ATOM      7  N   UNL     1      14.750  23.095  42.089  0.00  0.00    -0.281 N 
ATOM      8  C   UNL     1      15.624  22.404  42.914  0.00  0.00    +0.220 A 
ATOM      9  N   UNL     1      16.381  23.177  43.714  0.00  0.00    -0.223 NA
ATOM     10  C   UNL     1      17.245  22.554  44.535  0.00  0.00    +0.116 A 
ATOM     11  C   UNL     1      17.376  21.192  44.606  0.00  0.00    +0.048 A 
ATOM     12  C   UNL     1      16.550  20.479  43.772  0.00  0.00    +0.078 A 
ATOM     13  N   UNL     1      15.685  21.071  42.920  0.00  0.00    -0.214 NA
ATOM     14  H   UNL     1      14.788  24.087  42.287  0.00  0.00    +0.155 HD
BRANCH  12  15
ATOM     15  C   UNL     1      16.580  19.023  43.738  0.00  0.00    +0.026 A 
ATOM     16  C   UNL     1      15.688  18.261  44.466  0.00  0.00    +0.096 A 
ATOM     17  N   UNL     1      15.961  16.941  44.250  0.00  0.00    -0.349 N 
ATOM     18  C   UNL     1      15.253  15.851  44.879  0.00  0.00    +0.149 C 
ATOM     19  C   UNL     1      17.018  16.809  43.375  0.00  0.00    +0.049 A 
ATOM     20  C   UNL     1      17.646  15.663  42.861  0.00  0.00    +0.026 A 
ATOM     21  C   UNL     1      18.734  15.835  42.003  0.00  0.00    +0.002 A 
ATOM     22  C   UNL     1      19.189  17.107  41.674  0.00  0.00    +0.001 A 
ATOM     23  C   UNL     1      18.559  18.244  42.192  0.00  0.00    +0.010 A 
ATOM     24  C   UNL     1      17.442  18.105  43.048  0.00  0.00    +0.009 A 
ENDBRANCH  12  15
ENDBRANCH   3   7
BRANCH   1  27
ATOM     25  C   UNL     1      14.022  20.973  36.761  0.00  0.00    +0.241 C 
ATOM     26  O   UNL     1      14.507  19.964  37.253  0.00  0.00    -0.271 OA
ATOM     27  N   UNL     1      13.443  22.031  37.414  0.00  0.00    -0.280 N 
ATOM     28  H   UNL     1      13.162  22.851  36.876  0.00  0.00    +0.155 HD
BRANCH  25  30
ATOM     29  C   UNL     1      13.619  20.207  34.452  0.00  0.00    +0.013 C 
ATOM     30  C   UNL     1      14.022  21.177  35.283  0.00  0.00    +0.060 C 
ENDBRANCH  25  30
ENDBRANCH   1  27
BRANCH   4  31
ATOM     31  O   UNL     1      12.233  22.751  42.819  0.00  0.00    -0.493 OA
ATOM     32  C   UNL     1      11.734  21.649  43.565  0.00  0.00    +0.277 C 
ENDBRANCH   4  31
BRANCH   6  33
ATOM     33  N   UNL     1      10.918  21.592  38.243  0.00  0.00    -0.330 N 
ATOM     34  C   UNL     1      10.674  20.157  38.178  0.00  0.00    +0.129 C 
BRANCH  33  35
ATOM     35  C   UNL     1       9.791  22.514  38.042  0.00  0.00    +0.120 C 
BRANCH  35  36
ATOM     36  C   UNL     1      10.201  23.752  37.205  0.00  0.00    +0.102 C 
BRANCH  36  37
ATOM     37  N   UNL     1      10.180  25.049  37.926  0.00  0.00    -0.307 NA
ATOM     38  C   UNL     1       9.444  26.065  37.163  0.00  0.00    +0.104 C 
ATOM     39  C   UNL     1      11.551  25.511  38.159  0.00  0.00    +0.104 C 
ENDBRANCH  36  37
ENDBRANCH  35  36
ENDBRANCH  33  35
ENDBRANCH   6  33
TORSDOF 9
ENDMDL
MODEL 2
REMARK VINA RESULT:    -9.017      0.634      1.718
REMARK INTER + INTRA:         -15.623
REMARK INTER:                 -13.764
REMARK INTRA:                  -1.860
REMARK UNBOUND:                -1.862
REMARK  Name = OSIMERTINIB
REMARK  14 active torsions:
REMARK  status: ('A' for Active; 'I' for Inactive)
REMARK    1  A    between atoms: C_2  and  C_3
REMARK    2  A    between atoms: N_5  and  C_6
REMARK    3  A    between atoms: C_8  and  N_9
REMARK    4  A    between atoms: C_14  and  C_15
REMARK    5  A    between atoms: N_17  and  C_18
REMARK    6  A    between atoms: C_26  and  O_27
REMARK    7  A    between atoms: O_27  and  C_28
REMARK    8  A    between atoms: C_30  and  N_31
REMARK    9  A    between atoms: N_31  and  C_32
REMARK   10  A    between atoms: N_31  and  C_33
REMARK   11  A    between atoms: C_33  and  C_34
REMARK   12  A    between atoms: C_34  and  N_35
REMARK   13  A    between atoms: N_35  and  C_36
REMARK   14  A    between atoms: N_35  and  C_37
REMARK                            x       y       z     vdW  Elec       q    Type
REMARK                         _______ _______ _______ _____ _____    ______ ____
ROOT
ATOM      1  C   UNL     1      13.142  22.301  38.949  0.00  0.00    +0.057 A 
ATOM      2  C   UNL     1      14.079  22.627  39.935  0.00  0.00    +0.052 A 
ATOM      3  C   UNL     1      13.681  22.779  41.272  0.00  0.00    +0.078 A 
ATOM      4  C   UNL     1      12.316  22.589  41.607  0.00  0.00    +0.143 A 
ATOM      5  C   UNL     1      11.384  22.247  40.625  0.00  0.00    +0.072 A 
ATOM      6  C   UNL     1      11.787  22.093  39.295  0.00  0.00    +0.055 A 
ENDROOT
BRANCH   3   7
ATOM      7  N   UNL     1      14.563  23.096  42.320  0.00  0.00    -0.281 N 
ATOM      8  C   UNL     1      15.552  22.419  43.018  0.00  0.00    +0.220 A 
ATOM      9  N   UNL     1      16.205  23.155  43.935  0.00  0.00    -0.223 NA
ATOM     10  C   UNL     1      17.174  22.544  44.641  0.00  0.00    +0.116 A 
ATOM     11  C   UNL     1      17.507  21.224  44.485  0.00  0.00    +0.048 A 
ATOM     12  C   UNL     1      16.775  20.541  43.544  0.00  0.00    +0.078 A 
ATOM     13  N   UNL     1      15.810  21.128  42.803  0.00  0.00    -0.214 NA
ATOM     14  H   UNL     1      14.458  24.036  42.680  0.00  0.00    +0.155 HD
BRANCH  12  15
ATOM     15  C   UNL     1      17.021  19.132  43.269  0.00  0.00    +0.026 A 
ATOM     16  C   UNL     1      18.002  18.725  42.386  0.00  0.00    +0.096 A 
ATOM     17  N   UNL     1      17.993  17.362  42.321  0.00  0.00    -0.349 N 
ATOM     18  C   UNL     1      18.861  16.584  41.466  0.00  0.00    +0.149 C 
ATOM     19  C   UNL     1      17.027  16.849  43.159  0.00  0.00    +0.049 A 
ATOM     20  C   UNL     1      16.655  15.521  43.425  0.00  0.00    +0.026 A 
ATOM     21  C   UNL     1      15.600  15.297  44.313  0.00  0.00    +0.002 A 
ATOM     22  C   UNL     1      14.932  16.360  44.909  0.00  0.00    +0.001 A 
ATOM     23  C   UNL     1      15.309  17.680  44.637  0.00  0.00    +0.010 A 
ATOM     24  C   UNL     1      16.385  17.941  43.759  0.00  0.00    +0.009 A 
ENDBRANCH  12  15
ENDBRANCH   3   7
BRANCH   1  27
ATOM     25  C   UNL     1      14.071  21.126  36.928  0.00  0.00    +0.241 C 
ATOM     26  O   UNL     1      14.576  20.129  37.424  0.00  0.00    -0.271 OA
ATOM     27  N   UNL     1      13.432  22.153  37.574  0.00  0.00    -0.280 N 
ATOM     28  H   UNL     1      13.139  22.970  37.036  0.00  0.00    +0.155 HD
BRANCH  25  30
ATOM     29  C   UNL     1      13.716  20.399  34.598  0.00  0.00    +0.013 C 
ATOM     30  C   UNL     1      14.114  21.351  35.453  0.00  0.00    +0.060 C 
ENDBRANCH  25  30
ENDBRANCH   1  27
BRANCH   4  31
ATOM     31  O   UNL     1      12.015  22.769  42.941  0.00  0.00    -0.493 OA
ATOM     32  C   UNL     1      11.549  21.636  43.662  0.00  0.00    +0.277 C 
ENDBRANCH   4  31
BRANCH   6  33
ATOM     33  N   UNL     1      10.870  21.730  38.291  0.00  0.00    -0.330 N 
ATOM     34  C   UNL     1      10.634  20.298  38.164  0.00  0.00    +0.129 C 
BRANCH  33  35
ATOM     35  C   UNL     1       9.748  22.656  38.087  0.00  0.00    +0.120 C 
BRANCH  35  36
ATOM     36  C   UNL     1      10.160  23.882  37.233  0.00  0.00    +0.102 C 
BRANCH  36  37
ATOM     37  N   UNL     1      10.173  25.185  37.944  0.00  0.00    -0.307 NA
ATOM     38  C   UNL     1       9.460  26.212  37.175  0.00  0.00    +0.104 C 
ATOM     39  C   UNL     1      11.556  25.614  38.170  0.00  0.00    +0.104 C 
ENDBRANCH  36  37
ENDBRANCH  35  36
ENDBRANCH  33  35
ENDBRANCH   6  33
TORSDOF 9
ENDMDL
MODEL 3
REMARK VINA RESULT:    -8.887      1.814      4.043
REMARK INTER + INTRA:         -15.425
REMARK INTER:                 -14.004
REMARK INTRA:                  -1.421
REMARK UNBOUND:                -1.862
REMARK  Name = OSIMERTINIB
REMARK  14 active torsions:
REMARK  status: ('A' for Active; 'I' for Inactive)
REMARK    1  A    between atoms: C_2  and  C_3
REMARK    2  A    between atoms: N_5  and  C_6
REMARK    3  A    between atoms: C_8  and  N_9
REMARK    4  A    between atoms: C_14  and  C_15
REMARK    5  A    between atoms: N_17  and  C_18
REMARK    6  A    between atoms: C_26  and  O_27
REMARK    7  A    between atoms: O_27  and  C_28
REMARK    8  A    between atoms: C_30  and  N_31
REMARK    9  A    between atoms: N_31  and  C_32
REMARK   10  A    between atoms: N_31  and  C_33
REMARK   11  A    between atoms: C_33  and  C_34
REMARK   12  A    between atoms: C_34  and  N_35
REMARK   13  A    between atoms: N_35  and  C_36
REMARK   14  A    between atoms: N_35  and  C_37
REMARK                            x       y       z     vdW  Elec       q    Type
REMARK                         _______ _______ _______ _____ _____    ______ ____
ROOT
ATOM      1  C   UNL     1      11.144  22.802  40.522  0.00  0.00    +0.057 A 
ATOM      2  C   UNL     1      11.750  22.866  41.780  0.00  0.00    +0.052 A 
ATOM      3  C   UNL     1      13.089  23.267  41.906  0.00  0.00    +0.078 A 
ATOM      4  C   UNL     1      13.813  23.613  40.737  0.00  0.00    +0.143 A 
ATOM      5  C   UNL     1      13.203  23.566  39.483  0.00  0.00    +0.072 A 
ATOM      6  C   UNL     1      11.867  23.169  39.363  0.00  0.00    +0.055 A 
ENDROOT
BRANCH   3   7
ATOM      7  N   UNL     1      13.765  23.366  43.136  0.00  0.00    -0.281 N 
ATOM      8  C   UNL     1      14.726  22.619  43.797  0.00  0.00    +0.220 A 
ATOM      9  N   UNL     1      15.139  23.134  44.970  0.00  0.00    -0.223 NA
ATOM     10  C   UNL     1      16.071  22.445  45.652  0.00  0.00    +0.116 A 
ATOM     11  C   UNL     1      16.598  21.254  45.225  0.00  0.00    +0.048 A 
ATOM     12  C   UNL     1      16.104  20.789  44.031  0.00  0.00    +0.078 A 
ATOM     13  N   UNL     1      15.184  21.464  43.309  0.00  0.00    -0.214 NA
ATOM     14  H   UNL     1      13.485  24.159  43.698  0.00  0.00    +0.155 HD
BRANCH  12  15
ATOM     15  C   UNL     1      16.573  19.537  43.453  0.00  0.00    +0.026 A 
ATOM     16  C   UNL     1      17.451  19.514  42.387  0.00  0.00    +0.096 A 
ATOM     17  N   UNL     1      17.701  18.213  42.055  0.00  0.00    -0.349 N 
ATOM     18  C   UNL     1      18.548  17.803  40.957  0.00  0.00    +0.149 C 
ATOM     19  C   UNL     1      17.012  17.365  42.893  0.00  0.00    +0.049 A 
ATOM     20  C   UNL     1      16.960  15.962  42.938  0.00  0.00    +0.026 A 
ATOM     21  C   UNL     1      16.137  15.362  43.894  0.00  0.00    +0.002 A 
ATOM     22  C   UNL     1      15.383  16.134  44.770  0.00  0.00    +0.001 A 
ATOM     23  C   UNL     1      15.439  17.531  44.718  0.00  0.00    +0.010 A 
ATOM     24  C   UNL     1      16.278  18.170  43.776  0.00  0.00    +0.009 A 
ENDBRANCH  12  15
ENDBRANCH   3   7
BRANCH   1  27
ATOM     25  C   UNL     1       8.659  22.768  40.914  0.00  0.00    +0.241 C 
ATOM     26  O   UNL     1       8.543  23.527  41.866  0.00  0.00    -0.271 OA
ATOM     27  N   UNL     1       9.815  22.385  40.283  0.00  0.00    -0.280 N 
ATOM     28  H   UNL     1       9.768  21.669  39.557  0.00  0.00    +0.155 HD
BRANCH  25  30
ATOM     29  C   UNL     1       7.171  22.291  39.007  0.00  0.00    +0.013 C 
ATOM     30  C   UNL     1       7.462  22.120  40.303  0.00  0.00    +0.060 C 
ENDBRANCH  25  30
ENDBRANCH   1  27
BRANCH   4  31
ATOM     31  O   UNL     1      15.123  23.985  40.955  0.00  0.00    -0.493 OA
ATOM     32  C   UNL     1      16.129  23.270  40.249  0.00  0.00    +0.277 C 
ENDBRANCH   4  31
BRANCH   6  33
ATOM     33  N   UNL     1      11.225  23.131  38.112  0.00  0.00    -0.330 N 
ATOM     34  C   UNL     1      10.856  24.433  37.572  0.00  0.00    +0.129 C 
BRANCH  33  35
ATOM     35  C   UNL     1      11.685  22.083  37.190  0.00  0.00    +0.120 C 
BRANCH  35  36
ATOM     36  C   UNL     1      12.437  22.677  35.973  0.00  0.00    +0.102 C 
BRANCH  36  37
ATOM     37  N   UNL     1      13.427  21.777  35.330  0.00  0.00    -0.307 NA
ATOM     38  C   UNL     1      12.806  20.510  34.928  0.00  0.00    +0.104 C 
ATOM     39  C   UNL     1      14.531  21.509  36.256  0.00  0.00    +0.104 C 
ENDBRANCH  36  37
ENDBRANCH  35  36
ENDBRANCH  33  35
ENDBRANCH   6  33
TORSDOF 9
ENDMDL
MODEL 4
REMARK VINA RESULT:    -8.426      1.678      3.412
REMARK INTER + INTRA:         -14.721
REMARK INTER:                 -12.995
REMARK INTRA:                  -1.726
REMARK UNBOUND:                -1.862
REMARK  Name = OSIMERTINIB
REMARK  14 active torsions:
REMARK  status: ('A' for Active; 'I' for Inactive)
REMARK    1  A    between atoms: C_2  and  C_3
REMARK    2  A    between atoms: N_5  and  C_6
REMARK    3  A    between atoms: C_8  and  N_9
REMARK    4  A    between atoms: C_14  and  C_15
REMARK    5  A    between atoms: N_17  and  C_18
REMARK    6  A    between atoms: C_26  and  O_27
REMARK    7  A    between atoms: O_27  and  C_28
REMARK    8  A    between atoms: C_30  and  N_31
REMARK    9  A    between atoms: N_31  and  C_32
REMARK   10  A    between atoms: N_31  and  C_33
REMARK   11  A    between atoms: C_33  and  C_34
REMARK   12  A    between atoms: C_34  and  N_35
REMARK   13  A    between atoms: N_35  and  C_36
REMARK   14  A    between atoms: N_35  and  C_37
REMARK                            x       y       z     vdW  Elec       q    Type
REMARK                         _______ _______ _______ _____ _____    ______ ____
ROOT
ATOM      1  C   UNL     1      11.749  22.109  39.481  0.00  0.00    +0.057 A 
ATOM      2  C   UNL     1      12.267  22.201  40.777  0.00  0.00    +0.052 A 
ATOM      3  C   UNL     1      12.884  23.384  41.215  0.00  0.00    +0.078 A 
ATOM      4  C   UNL     1      12.965  24.484  40.324  0.00  0.00    +0.143 A 
ATOM      5  C   UNL     1      12.433  24.398  39.037  0.00  0.00    +0.072 A 
ATOM      6  C   UNL     1      11.816  23.219  38.607  0.00  0.00    +0.055 A 
ENDROOT
BRANCH   3   7
ATOM      7  N   UNL     1      13.419  23.557  42.504  0.00  0.00    -0.281 N 
ATOM      8  C   UNL     1      14.365  22.902  43.276  0.00  0.00    +0.220 A 
ATOM      9  N   UNL     1      14.612  23.467  44.472  0.00  0.00    -0.223 NA
ATOM     10  C   UNL     1      15.522  22.868  45.261  0.00  0.00    +0.116 A 
ATOM     11  C   UNL     1      16.185  21.719  44.918  0.00  0.00    +0.048 A 
ATOM     12  C   UNL     1      15.856  21.197  43.691  0.00  0.00    +0.078 A 
ATOM     13  N   UNL     1      14.962  21.782  42.864  0.00  0.00    -0.214 NA
ATOM     14  H   UNL     1      13.019  24.332  43.017  0.00  0.00    +0.155 HD
BRANCH  12  15
ATOM     15  C   UNL     1      16.482  19.980  43.192  0.00  0.00    +0.026 A 
ATOM     16  C   UNL     1      17.361  19.999  42.128  0.00  0.00    +0.096 A 
ATOM     17  N   UNL     1      17.775  18.723  41.878  0.00  0.00    -0.349 N 
ATOM     18  C   UNL     1      18.672  18.354  40.808  0.00  0.00    +0.149 C 
ATOM     19  C   UNL     1      17.194  17.849  42.771  0.00  0.00    +0.049 A 
ATOM     20  C   UNL     1      17.319  16.456  42.906  0.00  0.00    +0.026 A 
ATOM     21  C   UNL     1      16.572  15.819  43.900  0.00  0.00    +0.002 A 
ATOM     22  C   UNL     1      15.722  16.544  44.727  0.00  0.00    +0.001 A 
ATOM     23  C   UNL     1      15.602  17.931  44.586  0.00  0.00    +0.010 A 
ATOM     24  C   UNL     1      16.359  18.609  43.603  0.00  0.00    +0.009 A 
ENDBRANCH  12  15
ENDBRANCH   3   7
BRANCH   1  27
ATOM     25  C   UNL     1      11.716  19.857  38.362  0.00  0.00    +0.241 C 
ATOM     26  O   UNL     1      12.906  19.658  38.158  0.00  0.00    -0.271 OA
ATOM     27  N   UNL     1      11.136  20.960  38.934  0.00  0.00    -0.280 N 
ATOM     28  H   UNL     1      10.118  21.028  38.956  0.00  0.00    +0.155 HD
BRANCH  25  30
ATOM     29  C   UNL     1      10.801  18.170  36.812  0.00  0.00    +0.013 C 
ATOM     30  C   UNL     1      10.693  18.845  37.964  0.00  0.00    +0.060 C 
ENDBRANCH  25  30
ENDBRANCH   1  27
BRANCH   4  31
ATOM     31  O   UNL     1      13.596  25.599  40.835  0.00  0.00    -0.493 OA
ATOM     32  C   UNL     1      14.063  26.567  39.905  0.00  0.00    +0.277 C 
ENDBRANCH   4  31
BRANCH   6  33
ATOM     33  N   UNL     1      11.256  23.113  37.321  0.00  0.00    -0.330 N 
ATOM     34  C   UNL     1       9.982  23.800  37.148  0.00  0.00    +0.129 C 
BRANCH  33  35
ATOM     35  C   UNL     1      12.214  23.102  36.206  0.00  0.00    +0.120 C 
BRANCH  35  36
ATOM     36  C   UNL     1      12.173  21.763  35.426  0.00  0.00    +0.102 C 
BRANCH  36  37
ATOM     37  N   UNL     1      13.480  21.279  34.915  0.00  0.00    -0.307 NA
ATOM     38  C   UNL     1      13.402  19.868  34.520  0.00  0.00    +0.104 C 
ATOM     39  C   UNL     1      14.509  21.443  35.946  0.00  0.00    +0.104 C 
ENDBRANCH  36  37
ENDBRANCH  35  36
ENDBRANCH  33  35
ENDBRANCH   6  33
TORSDOF 9
ENDMDL
MODEL 5
REMARK VINA RESULT:    -8.245      2.910      4.986
REMARK INTER + INTRA:         -14.444
REMARK INTER:                 -12.959
REMARK INTRA:                  -1.485
REMARK UNBOUND:                -1.862
REMARK  Name = OSIMERTINIB
REMARK  14 active torsions:
REMARK  status: ('A' for Active; 'I' for Inactive)
REMARK    1  A    between atoms: C_2  and  C_3
REMARK    2  A    between atoms: N_5  and  C_6
REMARK    3  A    between atoms: C_8  and  N_9
REMARK    4  A    between atoms: C_14  and  C_15
REMARK    5  A    between atoms: N_17  and  C_18
REMARK    6  A    between atoms: C_26  and  O_27
REMARK    7  A    between atoms: O_27  and  C_28
REMARK    8  A    between atoms: C_30  and  N_31
REMARK    9  A    between atoms: N_31  and  C_32
REMARK   10  A    between atoms: N_31  and  C_33
REMARK   11  A    between atoms: C_33  and  C_34
REMARK   12  A    between atoms: C_34  and  N_35
REMARK   13  A    between atoms: N_35  and  C_36
REMARK   14  A    between atoms: N_35  and  C_37
REMARK                            x       y       z     vdW  Elec       q    Type
REMARK                         _______ _______ _______ _____ _____    ______ ____
ROOT
ATOM      1  C   UNL     1      11.525  22.554  37.234  0.00  0.00    +0.057 A 
ATOM      2  C   UNL     1      12.398  23.466  37.836  0.00  0.00    +0.052 A 
ATOM      3  C   UNL     1      11.981  24.778  38.108  0.00  0.00    +0.078 A 
ATOM      4  C   UNL     1      10.658  25.160  37.771  0.00  0.00    +0.143 A 
ATOM      5  C   UNL     1       9.781  24.245  37.186  0.00  0.00    +0.072 A 
ATOM      6  C   UNL     1      10.200  22.939  36.920  0.00  0.00    +0.055 A 
ENDROOT
BRANCH   3   7
ATOM      7  N   UNL     1      12.796  25.748  38.719  0.00  0.00    -0.281 N 
ATOM      8  C   UNL     1      13.855  25.727  39.614  0.00  0.00    +0.220 A 
ATOM      9  N   UNL     1      14.390  26.930  39.890  0.00  0.00    -0.223 NA
ATOM     10  C   UNL     1      15.419  26.964  40.755  0.00  0.00    +0.116 A 
ATOM     11  C   UNL     1      15.929  25.851  41.370  0.00  0.00    +0.048 A 
ATOM     12  C   UNL     1      15.310  24.668  41.050  0.00  0.00    +0.078 A 
ATOM     13  N   UNL     1      14.287  24.593  40.170  0.00  0.00    -0.214 NA
ATOM     14  H   UNL     1      12.561  26.700  38.473  0.00  0.00    +0.155 HD
BRANCH  12  15
ATOM     15  C   UNL     1      15.747  23.403  41.626  0.00  0.00    +0.026 A 
ATOM     16  C   UNL     1      16.234  22.377  40.841  0.00  0.00    +0.096 A 
ATOM     17  N   UNL     1      16.550  21.322  41.647  0.00  0.00    -0.349 N 
ATOM     18  C   UNL     1      17.054  20.055  41.167  0.00  0.00    +0.149 C 
ATOM     19  C   UNL     1      16.294  21.633  42.964  0.00  0.00    +0.049 A 
ATOM     20  C   UNL     1      16.462  20.876  44.135  0.00  0.00    +0.026 A 
ATOM     21  C   UNL     1      16.081  21.447  45.351  0.00  0.00    +0.002 A 
ATOM     22  C   UNL     1      15.541  22.727  45.399  0.00  0.00    +0.001 A 
ATOM     23  C   UNL     1      15.376  23.475  44.228  0.00  0.00    +0.010 A 
ATOM     24  C   UNL     1      15.770  22.933  42.983  0.00  0.00    +0.009 A 
ENDBRANCH  12  15
ENDBRANCH   3   7
BRANCH   1  27
ATOM     25  C   UNL     1      12.550  20.753  35.809  0.00  0.00    +0.241 C 
ATOM     26  O   UNL     1      12.999  21.396  34.871  0.00  0.00    -0.271 OA
ATOM     27  N   UNL     1      11.853  21.223  36.892  0.00  0.00    -0.280 N 
ATOM     28  H   UNL     1      11.457  20.555  37.555  0.00  0.00    +0.155 HD
BRANCH  25  30
ATOM     29  C   UNL     1      11.709  18.478  36.257  0.00  0.00    +0.013 C 
ATOM     30  C   UNL     1      12.717  19.271  35.869  0.00  0.00    +0.060 C 
ENDBRANCH  25  30
ENDBRANCH   1  27
BRANCH   4  31
ATOM     31  O   UNL     1      10.339  26.469  38.066  0.00  0.00    -0.493 OA
ATOM     32  C   UNL     1       9.719  27.235  37.041  0.00  0.00    +0.277 C 
ENDBRANCH   4  31
BRANCH   6  33
ATOM     33  N   UNL     1       9.329  21.993  36.349  0.00  0.00    -0.330 N 
ATOM     34  C   UNL     1       8.295  21.491  37.244  0.00  0.00    +0.129 C 
BRANCH  33  35
ATOM     35  C   UNL     1       9.002  22.202  34.931  0.00  0.00    +0.120 C 
BRANCH  35  36
ATOM     36  C   UNL     1       7.502  21.940  34.641  0.00  0.00    +0.102 C 
BRANCH  36  37
ATOM     37  N   UNL     1       6.717  23.121  34.206  0.00  0.00    -0.307 NA
ATOM     38  C   UNL     1       6.213  22.947  32.839  0.00  0.00    +0.104 C 
ATOM     39  C   UNL     1       7.552  24.324  34.270  0.00  0.00    +0.104 C 
ENDBRANCH  36  37
ENDBRANCH  35  36
ENDBRANCH  33  35
ENDBRANCH   6  33
TORSDOF 9
ENDMDL
MODEL 6
REMARK VINA RESULT:    -8.213      7.631     12.174
REMARK INTER + INTRA:         -14.397
REMARK INTER:                 -12.904
REMARK INTRA:                  -1.493
REMARK UNBOUND:                -1.862
REMARK  Name = OSIMERTINIB
REMARK  14 active torsions:
REMARK  status: ('A' for Active; 'I' for Inactive)
REMARK    1  A    between atoms: C_2  and  C_3
REMARK    2  A    between atoms: N_5  and  C_6
REMARK    3  A    between atoms: C_8  and  N_9
REMARK    4  A    between atoms: C_14  and  C_15
REMARK    5  A    between atoms: N_17  and  C_18
REMARK    6  A    between atoms: C_26  and  O_27
REMARK    7  A    between atoms: O_27  and  C_28
REMARK    8  A    between atoms: C_30  and  N_31
REMARK    9  A    between atoms: N_31  and  C_32
REMARK   10  A    between atoms: N_31  and  C_33
REMARK   11  A    between atoms: C_33  and  C_34
REMARK   12  A    between atoms: C_34  and  N_35
REMARK   13  A    between atoms: N_35  and  C_36
REMARK   14  A    between atoms: N_35  and  C_37
REMARK                            x       y       z     vdW  Elec       q    Type
REMARK                         _______ _______ _______ _____ _____    ______ ____
ROOT
ATOM      1  C   UNL     1       4.015  15.657  38.624  0.00  0.00    +0.057 A 
ATOM      2  C   UNL     1       3.888  16.981  38.193  0.00  0.00    +0.052 A 
ATOM      3  C   UNL     1       4.410  17.379  36.951  0.00  0.00    +0.078 A 
ATOM      4  C   UNL     1       5.060  16.414  36.141  0.00  0.00    +0.143 A 
ATOM      5  C   UNL     1       5.171  15.088  36.564  0.00  0.00    +0.072 A 
ATOM      6  C   UNL     1       4.647  14.697  37.799  0.00  0.00    +0.055 A 
ENDROOT
BRANCH   3   7
ATOM      7  N   UNL     1       4.314  18.687  36.445  0.00  0.00    -0.281 N 
ATOM      8  C   UNL     1       5.216  19.666  36.058  0.00  0.00    +0.220 A 
ATOM      9  N   UNL     1       4.661  20.787  35.563  0.00  0.00    -0.223 NA
ATOM     10  C   UNL     1       5.495  21.769  35.175  0.00  0.00    +0.116 A 
ATOM     11  C   UNL     1       6.859  21.689  35.276  0.00  0.00    +0.048 A 
ATOM     12  C   UNL     1       7.340  20.520  35.814  0.00  0.00    +0.078 A 
ATOM     13  N   UNL     1       6.534  19.505  36.195  0.00  0.00    -0.214 NA
ATOM     14  H   UNL     1       3.365  19.023  36.344  0.00  0.00    +0.155 HD
BRANCH  12  15
ATOM     15  C   UNL     1       8.770  20.294  35.980  0.00  0.00    +0.026 A 
ATOM     16  C   UNL     1       9.677  21.335  35.951  0.00  0.00    +0.096 A 
ATOM     17  N   UNL     1      10.932  20.825  36.119  0.00  0.00    -0.349 N 
ATOM     18  C   UNL     1      12.140  21.618  36.105  0.00  0.00    +0.149 C 
ATOM     19  C   UNL     1      10.876  19.457  36.274  0.00  0.00    +0.049 A 
ATOM     20  C   UNL     1      11.897  18.514  36.475  0.00  0.00    +0.026 A 
ATOM     21  C   UNL     1      11.542  17.166  36.567  0.00  0.00    +0.002 A 
ATOM     22  C   UNL     1      10.214  16.769  36.453  0.00  0.00    +0.001 A 
ATOM     23  C   UNL     1       9.203  17.715  36.252  0.00  0.00    +0.010 A 
ATOM     24  C   UNL     1       9.527  19.090  36.174  0.00  0.00    +0.009 A 
ENDBRANCH  12  15
ENDBRANCH   3   7
BRANCH   1  27
ATOM     25  C   UNL     1       2.265  14.978  40.298  0.00  0.00    +0.241 C 
ATOM     26  O   UNL     1       1.229  15.258  39.710  0.00  0.00    -0.271 OA
ATOM     27  N   UNL     1       3.552  15.162  39.863  0.00  0.00    -0.280 N 
ATOM     28  H   UNL     1       4.323  14.965  40.503  0.00  0.00    +0.155 HD
BRANCH  25  30
ATOM     29  C   UNL     1       1.320  13.443  41.981  0.00  0.00    +0.013 C 
ATOM     30  C   UNL     1       2.229  14.374  41.662  0.00  0.00    +0.060 C 
ENDBRANCH  25  30
ENDBRANCH   1  27
BRANCH   4  31
ATOM     31  O   UNL     1       5.550  16.896  34.945  0.00  0.00    -0.493 OA
ATOM     32  C   UNL     1       6.419  16.047  34.207  0.00  0.00    +0.277 C 
ENDBRANCH   4  31
BRANCH   6  33
ATOM     33  N   UNL     1       4.730  13.363  38.240  0.00  0.00    -0.330 N 
ATOM     34  C   UNL     1       3.829  12.437  37.566  0.00  0.00    +0.129 C 
BRANCH  33  35
ATOM     35  C   UNL     1       6.071  12.900  38.621  0.00  0.00    +0.120 C 
BRANCH  35  36
ATOM     36  C   UNL     1       6.041  12.049  39.916  0.00  0.00    +0.102 C 
BRANCH  36  37
ATOM     37  N   UNL     1       5.122  12.530  40.978  0.00  0.00    -0.307 NA
ATOM     38  C   UNL     1       5.839  13.343  41.967  0.00  0.00    +0.104 C 
ATOM     39  C   UNL     1       4.493  11.388  41.647  0.00  0.00    +0.104 C 
ENDBRANCH  36  37
ENDBRANCH  35  36
ENDBRANCH  33  35
ENDBRANCH   6  33
TORSDOF 9
ENDMDL
MODEL 7
REMARK VINA RESULT:    -8.189      5.838     10.116
REMARK INTER + INTRA:         -14.360
REMARK INTER:                 -12.302
REMARK INTRA:                  -2.058
REMARK UNBOUND:                -1.862
REMARK  Name = OSIMERTINIB
REMARK  14 active torsions:
REMARK  status: ('A' for Active; 'I' for Inactive)
REMARK    1  A    between atoms: C_2  and  C_3
REMARK    2  A    between atoms: N_5  and  C_6
REMARK    3  A    between atoms: C_8  and  N_9
REMARK    4  A    between atoms: C_14  and  C_15
REMARK    5  A    between atoms: N_17  and  C_18
REMARK    6  A    between atoms: C_26  and  O_27
REMARK    7  A    between atoms: O_27  and  C_28
REMARK    8  A    between atoms: C_30  and  N_31
REMARK    9  A    between atoms: N_31  and  C_32
REMARK   10  A    between atoms: N_31  and  C_33
REMARK   11  A    between atoms: C_33  and  C_34
REMARK   12  A    between atoms: C_34  and  N_35
REMARK   13  A    between atoms: N_35  and  C_36
REMARK   14  A    between atoms: N_35  and  C_37
REMARK                            x       y       z     vdW  Elec       q    Type
REMARK                         _______ _______ _______ _____ _____    ______ ____
ROOT
ATOM      1  C   UNL     1       8.951  21.401  36.906  0.00  0.00    +0.057 A 
ATOM      2  C   UNL     1       8.724  20.309  36.063  0.00  0.00    +0.052 A 
ATOM      3  C   UNL     1       7.414  19.899  35.765  0.00  0.00    +0.078 A 
ATOM      4  C   UNL     1       6.328  20.617  36.325  0.00  0.00    +0.143 A 
ATOM      5  C   UNL     1       6.554  21.719  37.152  0.00  0.00    +0.072 A 
ATOM      6  C   UNL     1       7.860  22.125  37.443  0.00  0.00    +0.055 A 
ENDROOT
BRANCH   3   7
ATOM      7  N   UNL     1       7.106  18.818  34.920  0.00  0.00    -0.281 N 
ATOM      8  C   UNL     1       6.740  17.494  35.104  0.00  0.00    +0.220 A 
ATOM      9  N   UNL     1       6.477  16.814  33.973  0.00  0.00    -0.223 NA
ATOM     10  C   UNL     1       6.119  15.524  34.097  0.00  0.00    +0.116 A 
ATOM     11  C   UNL     1       6.028  14.875  35.300  0.00  0.00    +0.048 A 
ATOM     12  C   UNL     1       6.336  15.636  36.402  0.00  0.00    +0.078 A 
ATOM     13  N   UNL     1       6.679  16.940  36.316  0.00  0.00    -0.214 NA
ATOM     14  H   UNL     1       7.177  19.031  33.933  0.00  0.00    +0.155 HD
BRANCH  12  15
ATOM     15  C   UNL     1       6.280  15.080  37.747  0.00  0.00    +0.026 A 
ATOM     16  C   UNL     1       7.390  14.517  38.346  0.00  0.00    +0.096 A 
ATOM     17  N   UNL     1       7.038  14.072  39.588  0.00  0.00    -0.349 N 
ATOM     18  C   UNL     1       7.937  13.391  40.492  0.00  0.00    +0.149 C 
ATOM     19  C   UNL     1       5.710  14.342  39.834  0.00  0.00    +0.049 A 
ATOM     20  C   UNL     1       4.913  14.078  40.961  0.00  0.00    +0.026 A 
ATOM     21  C   UNL     1       3.566  14.443  40.916  0.00  0.00    +0.002 A 
ATOM     22  C   UNL     1       3.026  15.042  39.783  0.00  0.00    +0.001 A 
ATOM     23  C   UNL     1       3.827  15.301  38.665  0.00  0.00    +0.010 A 
ATOM     24  C   UNL     1       5.199  14.962  38.685  0.00  0.00    +0.009 A 
ENDBRANCH  12  15
ENDBRANCH   3   7
BRANCH   1  27
ATOM     25  C   UNL     1      11.158  22.553  36.550  0.00  0.00    +0.241 C 
ATOM     26  O   UNL     1      11.101  22.850  35.365  0.00  0.00    -0.271 OA
ATOM     27  N   UNL     1      10.224  21.876  37.291  0.00  0.00    -0.280 N 
ATOM     28  H   UNL     1      10.448  21.618  38.253  0.00  0.00    +0.155 HD
BRANCH  25  30
ATOM     29  C   UNL     1      12.269  23.848  38.331  0.00  0.00    +0.013 C 
ATOM     30  C   UNL     1      12.350  22.916  37.372  0.00  0.00    +0.060 C 
ENDBRANCH  25  30
ENDBRANCH   1  27
BRANCH   4  31
ATOM     31  O   UNL     1       5.079  20.139  35.986  0.00  0.00    -0.493 OA
ATOM     32  C   UNL     1       4.243  19.692  37.045  0.00  0.00    +0.277 C 
ENDBRANCH   4  31
BRANCH   6  33
ATOM     33  N   UNL     1       8.114  23.243  38.258  0.00  0.00    -0.330 N 
ATOM     34  C   UNL     1       8.019  24.530  37.582  0.00  0.00    +0.129 C 
BRANCH  33  35
ATOM     35  C   UNL     1       7.653  23.135  39.650  0.00  0.00    +0.120 C 
BRANCH  35  36
ATOM     36  C   UNL     1       8.428  22.043  40.430  0.00  0.00    +0.102 C 
BRANCH  36  37
ATOM     37  N   UNL     1       9.897  22.236  40.517  0.00  0.00    -0.307 NA
ATOM     38  C   UNL     1      10.590  20.951  40.662  0.00  0.00    +0.104 C 
ATOM     39  C   UNL     1      10.218  23.097  41.659  0.00  0.00    +0.104 C 
ENDBRANCH  36  37
ENDBRANCH  35  36
ENDBRANCH  33  35
ENDBRANCH   6  33
TORSDOF 9
ENDMDL
MODEL 8
REMARK VINA RESULT:    -8.179      7.336     12.077
REMARK INTER + INTRA:         -14.345
REMARK INTER:                 -12.362
REMARK INTRA:                  -1.983
REMARK UNBOUND:                -1.862
REMARK  Name = OSIMERTINIB
REMARK  14 active torsions:
REMARK  status: ('A' for Active; 'I' for Inactive)
REMARK    1  A    between atoms: C_2  and  C_3
REMARK    2  A    between atoms: N_5  and  C_6
REMARK    3  A    between atoms: C_8  and  N_9
REMARK    4  A    between atoms: C_14  and  C_15
REMARK    5  A    between atoms: N_17  and  C_18
REMARK    6  A    between atoms: C_26  and  O_27
REMARK    7  A    between atoms: O_27  and  C_28
REMARK    8  A    between atoms: C_30  and  N_31
REMARK    9  A    between atoms: N_31  and  C_32
REMARK   10  A    between atoms: N_31  and  C_33
REMARK   11  A    between atoms: C_33  and  C_34
REMARK   12  A    between atoms: C_34  and  N_35
REMARK   13  A    between atoms: N_35  and  C_36
REMARK   14  A    between atoms: N_35  and  C_37
REMARK                            x       y       z     vdW  Elec       q    Type
REMARK                         _______ _______ _______ _____ _____    ______ ____
ROOT
ATOM      1  C   UNL     1       4.301  15.770  38.296  0.00  0.00    +0.057 A 
ATOM      2  C   UNL     1       4.135  17.040  37.734  0.00  0.00    +0.052 A 
ATOM      3  C   UNL     1       4.649  17.328  36.460  0.00  0.00    +0.078 A 
ATOM      4  C   UNL     1       5.332  16.308  35.750  0.00  0.00    +0.143 A 
ATOM      5  C   UNL     1       5.482  15.035  36.304  0.00  0.00    +0.072 A 
ATOM      6  C   UNL     1       4.965  14.753  37.572  0.00  0.00    +0.055 A 
ENDROOT
BRANCH   3   7
ATOM      7  N   UNL     1       4.515  18.576  35.825  0.00  0.00    -0.281 N 
ATOM      8  C   UNL     1       5.336  19.674  35.621  0.00  0.00    +0.220 A 
ATOM      9  N   UNL     1       4.793  20.660  34.885  0.00  0.00    -0.223 NA
ATOM     10  C   UNL     1       5.549  21.749  34.659  0.00  0.00    +0.116 A 
ATOM     11  C   UNL     1       6.818  21.907  35.151  0.00  0.00    +0.048 A 
ATOM     12  C   UNL     1       7.285  20.863  35.912  0.00  0.00    +0.078 A 
ATOM     13  N   UNL     1       6.562  19.745  36.142  0.00  0.00    -0.214 NA
ATOM     14  H   UNL     1       3.599  18.741  35.428  0.00  0.00    +0.155 HD
BRANCH  12  15
ATOM     15  C   UNL     1       8.618  20.890  36.499  0.00  0.00    +0.026 A 
ATOM     16  C   UNL     1       9.681  20.228  35.917  0.00  0.00    +0.096 A 
ATOM     17  N   UNL     1      10.791  20.420  36.688  0.00  0.00    -0.349 N 
ATOM     18  C   UNL     1      12.085  19.841  36.407  0.00  0.00    +0.149 C 
ATOM     19  C   UNL     1      10.488  21.213  37.773  0.00  0.00    +0.049 A 
ATOM     20  C   UNL     1      11.296  21.676  38.824  0.00  0.00    +0.026 A 
ATOM     21  C   UNL     1      10.701  22.453  39.821  0.00  0.00    +0.002 A 
ATOM     22  C   UNL     1       9.343  22.750  39.777  0.00  0.00    +0.001 A 
ATOM     23  C   UNL     1       8.545  22.284  38.727  0.00  0.00    +0.010 A 
ATOM     24  C   UNL     1       9.121  21.512  37.691  0.00  0.00    +0.009 A 
ENDBRANCH  12  15
ENDBRANCH   3   7
BRANCH   1  27
ATOM     25  C   UNL     1       2.569  15.159  40.014  0.00  0.00    +0.241 C 
ATOM     26  O   UNL     1       1.529  15.292  39.384  0.00  0.00    -0.271 OA
ATOM     27  N   UNL     1       3.849  15.386  39.578  0.00  0.00    -0.280 N 
ATOM     28  H   UNL     1       4.618  15.322  40.246  0.00  0.00    +0.155 HD
BRANCH  25  30
ATOM     29  C   UNL     1       1.648  13.817  41.868  0.00  0.00    +0.013 C 
ATOM     30  C   UNL     1       2.547  14.713  41.438  0.00  0.00    +0.060 C 
ENDBRANCH  25  30
ENDBRANCH   1  27
BRANCH   4  31
ATOM     31  O   UNL     1       5.811  16.683  34.513  0.00  0.00    -0.493 OA
ATOM     32  C   UNL     1       7.216  16.609  34.309  0.00  0.00    +0.277 C 
ENDBRANCH   4  31
BRANCH   6  33
ATOM     33  N   UNL     1       5.087  13.473  38.143  0.00  0.00    -0.330 N 
ATOM     34  C   UNL     1       4.202  12.462  37.579  0.00  0.00    +0.129 C 
BRANCH  33  35
ATOM     35  C   UNL     1       6.445  13.082  38.549  0.00  0.00    +0.120 C 
BRANCH  35  36
ATOM     36  C   UNL     1       6.452  12.366  39.924  0.00  0.00    +0.102 C 
BRANCH  36  37
ATOM     37  N   UNL     1       5.411  12.811  40.884  0.00  0.00    -0.307 NA
ATOM     38  C   UNL     1       5.997  13.616  41.962  0.00  0.00    +0.104 C 
ATOM     39  C   UNL     1       4.732  11.645  41.457  0.00  0.00    +0.104 C 
ENDBRANCH  36  37
ENDBRANCH  35  36
ENDBRANCH  33  35
ENDBRANCH   6  33
TORSDOF 9
ENDMDL
MODEL 9
REMARK VINA RESULT:    -8.154     10.052     12.969
REMARK INTER + INTRA:         -14.306
REMARK INTER:                 -12.893
REMARK INTRA:                  -1.413
REMARK UNBOUND:                -1.862
REMARK  Name = OSIMERTINIB
REMARK  14 active torsions:
REMARK  status: ('A' for Active; 'I' for Inactive)
REMARK    1  A    between atoms: C_2  and  C_3
REMARK    2  A    between atoms: N_5  and  C_6
REMARK    3  A    between atoms: C_8  and  N_9
REMARK    4  A    between atoms: C_14  and  C_15
REMARK    5  A    between atoms: N_17  and  C_18
REMARK    6  A    between atoms: C_26  and  O_27
REMARK    7  A    between atoms: O_27  and  C_28
REMARK    8  A    between atoms: C_30  and  N_31
REMARK    9  A    between atoms: N_31  and  C_32
REMARK   10  A    between atoms: N_31  and  C_33
REMARK   11  A    between atoms: C_33  and  C_34
REMARK   12  A    between atoms: C_34  and  N_35
REMARK   13  A    between atoms: N_35  and  C_36
REMARK   14  A    between atoms: N_35  and  C_37
REMARK                            x       y       z     vdW  Elec       q    Type
REMARK                         _______ _______ _______ _____ _____    ______ ____
ROOT
ATOM      1  C   UNL     1       6.239  15.739  37.650  0.00  0.00    +0.057 A 
ATOM      2  C   UNL     1       5.324  15.446  38.666  0.00  0.00    +0.052 A 
ATOM      3  C   UNL     1       4.018  15.959  38.618  0.00  0.00    +0.078 A 
ATOM      4  C   UNL     1       3.641  16.770  37.518  0.00  0.00    +0.143 A 
ATOM      5  C   UNL     1       4.549  17.048  36.495  0.00  0.00    +0.072 A 
ATOM      6  C   UNL     1       5.848  16.532  36.546  0.00  0.00    +0.055 A 
ENDROOT
BRANCH   3   7
ATOM      7  N   UNL     1       3.040  15.702  39.595  0.00  0.00    -0.281 N 
ATOM      8  C   UNL     1       2.651  14.597  40.336  0.00  0.00    +0.220 A 
ATOM      9  N   UNL     1       1.670  14.828  41.228  0.00  0.00    -0.223 NA
ATOM     10  C   UNL     1       1.255  13.787  41.972  0.00  0.00    +0.116 A 
ATOM     11  C   UNL     1       1.762  12.520  41.853  0.00  0.00    +0.048 A 
ATOM     12  C   UNL     1       2.743  12.367  40.903  0.00  0.00    +0.078 A 
ATOM     13  N   UNL     1       3.199  13.394  40.153  0.00  0.00    -0.214 NA
ATOM     14  H   UNL     1       2.456  16.498  39.815  0.00  0.00    +0.155 HD
BRANCH  12  15
ATOM     15  C   UNL     1       3.376  11.077  40.667  0.00  0.00    +0.026 A 
ATOM     16  C   UNL     1       4.669  10.817  41.074  0.00  0.00    +0.096 A 
ATOM     17  N   UNL     1       4.996   9.543  40.711  0.00  0.00    -0.349 N 
ATOM     18  C   UNL     1       6.288   8.938  40.940  0.00  0.00    +0.149 C 
ATOM     19  C   UNL     1       3.931   8.940  40.076  0.00  0.00    +0.049 A 
ATOM     20  C   UNL     1       3.797   7.651  39.535  0.00  0.00    +0.026 A 
ATOM     21  C   UNL     1       2.591   7.319  38.912  0.00  0.00    +0.002 A 
ATOM     22  C   UNL     1       1.557   8.244  38.822  0.00  0.00    +0.001 A 
ATOM     23  C   UNL     1       1.700   9.526  39.363  0.00  0.00    +0.010 A 
ATOM     24  C   UNL     1       2.900   9.888  40.018  0.00  0.00    +0.009 A 
ENDBRANCH  12  15
ENDBRANCH   3   7
BRANCH   1  27
ATOM     25  C   UNL     1       8.087  14.042  37.832  0.00  0.00    +0.241 C 
ATOM     26  O   UNL     1       7.475  13.033  38.153  0.00  0.00    -0.271 OA
ATOM     27  N   UNL     1       7.581  15.298  37.616  0.00  0.00    -0.280 N 
ATOM     28  H   UNL     1       8.227  16.069  37.443  0.00  0.00    +0.155 HD
BRANCH  25  30
ATOM     29  C   UNL     1      10.282  15.141  37.586  0.00  0.00    +0.013 C 
ATOM     30  C   UNL     1       9.567  14.009  37.640  0.00  0.00    +0.060 C 
ENDBRANCH  25  30
ENDBRANCH   1  27
BRANCH   4  31
ATOM     31  O   UNL     1       2.344  17.238  37.560  0.00  0.00    -0.493 OA
ATOM     32  C   UNL     1       2.161  18.644  37.659  0.00  0.00    +0.277 C 
ENDBRANCH   4  31
BRANCH   6  33
ATOM     33  N   UNL     1       6.775  16.782  35.518  0.00  0.00    -0.330 N 
ATOM     34  C   UNL     1       6.466  16.146  34.244  0.00  0.00    +0.129 C 
BRANCH  33  35
ATOM     35  C   UNL     1       7.378  18.123  35.515  0.00  0.00    +0.120 C 
BRANCH  35  36
ATOM     36  C   UNL     1       6.744  19.037  34.435  0.00  0.00    +0.102 C 
BRANCH  36  37
ATOM     37  N   UNL     1       6.310  20.377  34.903  0.00  0.00    -0.307 NA
ATOM     38  C   UNL     1       4.852  20.435  35.057  0.00  0.00    +0.104 C 
ATOM     39  C   UNL     1       6.743  21.401  33.949  0.00  0.00    +0.104 C 
ENDBRANCH  36  37
ENDBRANCH  35  36
ENDBRANCH  33  35
ENDBRANCH   6  33
TORSDOF 9
ENDMDL
